FoamFile
{
    version 2.0;
    format  ascii;
    class   volScalarField;
    object  omega;
}

dimensions      [0 0 -1 0 0 0 0];

internalField   uniform 2.0;

boundaryField
{
    farField
    {
        type            inletOutlet;
        inletValue      uniform 2.0;
        value           uniform 2.0;
    }

    axialFan
    {
        type            omegaWallFunction;
        value           uniform 2.0;
    }

    AMI_rotor
    {
        type            zeroGradient;
        value           uniform 2.0;
    }

    AMI_background
    {
        type            zeroGradient;
        value           uniform 2.0;
    }

    nonConformalCyclic_on_AMI_rotor
    {
        type            nonConformalCyclic;
        value           $internalField;
    }

    nonConformalCyclic_on_AMI_background
    {
        type            nonConformalCyclic;
        value           $internalField;
    }

    nonConformalError_on_AMI_rotor
    {
        type            nonConformalError;
    }

    nonConformalError_on_AMI_background
    {
        type            nonConformalError;
    }
}
